<?xml version="1.0" encoding="UTF-8"?>

<!-- generated on 2024-04-27 00:27:33 by Eclipse SUMO GUI Version v1_19_0+0759-a85039363be
<configuration xmlns:xsi="http://www.w3.org/2001/XMLSchema-instance" xsi:noNamespaceSchemaLocation="http://sumo.dlr.de/xsd/sumoConfiguration.xsd">

    <input>
        <net-file value="./maps/singlelane/singlelane.net.xml"/>
        <route-files value="./maps/singlelane/singlelane.rou.xml"/>
        <additional-files value="./maps/singlelane/singlelane.add.xml"/>
    </input>

    <output>
        <tripinfo-output value="tripinfo.xml"/>
    </output>

    <traci_server>
        <remote-port value="57452"/>
    </traci_server>

</configuration>
-->

<tripinfos xmlns:xsi="http://www.w3.org/2001/XMLSchema-instance" xsi:noNamespaceSchemaLocation="http://sumo.dlr.de/xsd/tripinfo_file.xsd">
</tripinfos>
